
     Program PWSCF v.6.5 starts on 12Jul2020 at 21:20:45 

     This program is part of the open-source Quantum ESPRESSO suite
     for quantum simulation of materials; please cite
         "P. Giannozzi et al., J. Phys.:Condens. Matter 21 395502 (2009);
         "P. Giannozzi et al., J. Phys.:Condens. Matter 29 465901 (2017);
          URL http://www.quantum-espresso.org", 
     in publications or presentations arising from this work. More details at
     http://www.quantum-espresso.org/quote

     Parallel version (MPI), running on    16 processors

     MPI processes distributed on     1 nodes
     R & G space division:  proc/nbgrp/npool/nimage =      16
     Fft bands division:     nmany     =       1
     Waiting for input...
     Reading input from standard input

     Current dimensions of program PWSCF are:
     Max number of different atomic species (ntypx) = 10
     Max number of k-points (npk) =  40000
     Max angular momentum in pseudopotentials (lmaxx) =  3

     IMPORTANT: XC functional enforced from input :
     Exchange-correlation= VDW-DF
                           (   1   4   4   0   1   0   0)
     Any further DFT definition will be discarded
     Please, verify this is what you really want


     Subspace diagonalization in iterative solution of the eigenvalue problem:
     one sub-group per band group will be used
     scalapack distributed-memory algorithm (size of sub-group:  4*  4 procs)

 
     Parallelization info
     --------------------
     sticks:   dense  smooth     PW     G-vecs:    dense   smooth      PW
     Min        2684     895    223               418838    80607   10075
     Max        2685     896    224               418843    80612   10082
     Sum       42953   14329   3577              6701457  1289759  161235
 


     bravais-lattice index     =            1
     lattice parameter (alat)  =      30.0000  a.u.
     unit-cell volume          =   27000.0000 (a.u.)^3
     number of atoms/cell      =           14
     number of atomic types    =            2
     number of electrons       =        26.00
     number of Kohn-Sham states=           17
     kinetic-energy cutoff     =      50.0000  Ry
     charge density cutoff     =     600.0000  Ry
     convergence threshold     =      1.0E-08
     mixing beta               =       0.7000
     number of iterations used =            8  plain     mixing
     Exchange-correlation= VDW-DF
                           (   1   4   4   0   1   0   0)
     nstep                     =          200


     celldm(1)=  30.000000  celldm(2)=   0.000000  celldm(3)=   0.000000
     celldm(4)=   0.000000  celldm(5)=   0.000000  celldm(6)=   0.000000

     crystal axes: (cart. coord. in units of alat)
               a(1) = (   1.000000   0.000000   0.000000 )  
               a(2) = (   0.000000   1.000000   0.000000 )  
               a(3) = (   0.000000   0.000000   1.000000 )  

     reciprocal axes: (cart. coord. in units 2 pi/alat)
               b(1) = (  1.000000  0.000000  0.000000 )  
               b(2) = (  0.000000  1.000000  0.000000 )  
               b(3) = (  0.000000  0.000000  1.000000 )  


     PseudoPot. # 1 for C  read from file:
     /deac/thonhauserGrp/chakrad/calculations/atomandmolecule-qe6.2.1-i2012-C6modif/all_pbe_UPF_v1.5/c_pbe_v1.2.uspp.F.UPF
     MD5 check sum: d1aef80898a10debaa0f26306b886e00
     Pseudo is Ultrasoft + core correction, Zval =  4.0
     Generated by new atomic code, or converted to UPF format
     Using radial grid of  721 points,  4 beta functions with: 
                l(1) =   0
                l(2) =   0
                l(3) =   1
                l(4) =   1
     Q(r) pseudized with  8 coefficients,  rinner =    1.100   1.100   1.100


     PseudoPot. # 2 for H  read from file:
     /deac/thonhauserGrp/chakrad/calculations/atomandmolecule-qe6.2.1-i2012-C6modif/all_pbe_UPF_v1.5/h_pbe_v1.4.uspp.F.UPF
     MD5 check sum: 761ae9a214b05c3daf00ab9f6b793d6f
     Pseudo is Ultrasoft, Zval =  1.0
     Generated by new atomic code, or converted to UPF format
     Using radial grid of  615 points,  2 beta functions with: 
                l(1) =   0
                l(2) =   0
     Q(r) pseudized with  8 coefficients,  rinner =    0.700

     atomic species   valence    mass     pseudopotential
        C              4.00    12.01100     C ( 1.00)
        H              1.00     1.00800     H ( 1.00)

     Starting magnetic structure 
     atomic species   magnetization
        C            0.890
        H            0.000

      4 Sym. Ops., with inversion, found


                                    s                        frac. trans.

      isym =  1     identity                                     

 cryst.   s( 1) = (     1          0          0      )
                  (     0          1          0      )
                  (     0          0          1      )

 cart.    s( 1) = (  1.0000000  0.0000000  0.0000000 )
                  (  0.0000000  1.0000000  0.0000000 )
                  (  0.0000000  0.0000000  1.0000000 )


      isym =  2     180 deg rotation - cart. axis [0,0,1]        

 cryst.   s( 2) = (    -1          0          0      )
                  (     0         -1          0      )
                  (     0          0          1      )

 cart.    s( 2) = ( -1.0000000  0.0000000  0.0000000 )
                  (  0.0000000 -1.0000000  0.0000000 )
                  (  0.0000000  0.0000000  1.0000000 )


      isym =  3     inversion                                    

 cryst.   s( 3) = (    -1          0          0      )
                  (     0         -1          0      )
                  (     0          0         -1      )

 cart.    s( 3) = ( -1.0000000  0.0000000  0.0000000 )
                  (  0.0000000 -1.0000000  0.0000000 )
                  (  0.0000000  0.0000000 -1.0000000 )


      isym =  4     inv. 180 deg rotation - cart. axis [0,0,1]   

 cryst.   s( 4) = (     1          0          0      )
                  (     0          1          0      )
                  (     0          0         -1      )

 cart.    s( 4) = (  1.0000000  0.0000000  0.0000000 )
                  (  0.0000000  1.0000000  0.0000000 )
                  (  0.0000000  0.0000000 -1.0000000 )


     point group C_2h (2/m) 
     there are  4 classes
     the character table:

       E     C2    i     s_h  
A_g    1.00  1.00  1.00  1.00
B_g    1.00 -1.00  1.00 -1.00
A_u    1.00  1.00 -1.00 -1.00
B_u    1.00 -1.00 -1.00  1.00

     the symmetry operations in each class and the name of the first element:

     E        1
          identity                                               
     C2       2
          180 deg rotation - cart. axis [0,0,1]                  
     i        3
          inversion                                              
     s_h      4
          inv. 180 deg rotation - cart. axis [0,0,1]             

   Cartesian axes

     site n.     atom                  positions (alat units)
         1           C   tau(   1) = (   0.0442562   0.1146984   0.0000000  )
         2           C   tau(   2) = (   0.0442562   0.0186658   0.0000000  )
         3           C   tau(   3) = (  -0.0442562  -0.0186658   0.0000000  )
         4           C   tau(   4) = (  -0.0442562  -0.1146984   0.0000000  )
         5           H   tau(   5) = (   0.1083323   0.1399871   0.0000000  )
         6           H   tau(   6) = (  -0.1083323  -0.1399871   0.0000000  )
         7           H   tau(   7) = (   0.0118520   0.1392326   0.0556596  )
         8           H   tau(   8) = (   0.0118520   0.1392326  -0.0556596  )
         9           H   tau(   9) = (  -0.0118520  -0.1392326   0.0556596  )
        10           H   tau(  10) = (  -0.0118520  -0.1392326  -0.0556596  )
        11           H   tau(  11) = (   0.0785942  -0.0045769  -0.0552788  )
        12           H   tau(  12) = (   0.0785942  -0.0045769   0.0552788  )
        13           H   tau(  13) = (  -0.0785942   0.0045769  -0.0552788  )
        14           H   tau(  14) = (  -0.0785942   0.0045769   0.0552788  )

   Crystallographic axes

     site n.     atom                  positions (cryst. coord.)
         1           C   tau(   1) = (  0.0442562  0.1146984  0.0000000  )
         2           C   tau(   2) = (  0.0442562  0.0186658  0.0000000  )
         3           C   tau(   3) = ( -0.0442562 -0.0186658  0.0000000  )
         4           C   tau(   4) = ( -0.0442562 -0.1146984  0.0000000  )
         5           H   tau(   5) = (  0.1083323  0.1399871  0.0000000  )
         6           H   tau(   6) = ( -0.1083323 -0.1399871  0.0000000  )
         7           H   tau(   7) = (  0.0118520  0.1392326  0.0556596  )
         8           H   tau(   8) = (  0.0118520  0.1392326 -0.0556596  )
         9           H   tau(   9) = ( -0.0118520 -0.1392326  0.0556596  )
        10           H   tau(  10) = ( -0.0118520 -0.1392326 -0.0556596  )
        11           H   tau(  11) = (  0.0785942 -0.0045769 -0.0552788  )
        12           H   tau(  12) = (  0.0785942 -0.0045769  0.0552788  )
        13           H   tau(  13) = ( -0.0785942  0.0045769 -0.0552788  )
        14           H   tau(  14) = ( -0.0785942  0.0045769  0.0552788  )

     number of k points=     1  Gaussian smearing, width (Ry)=  0.0020
                       cart. coord. in units 2pi/alat
        k(    1) = (   0.0000000   0.0000000   0.0000000), wk =   1.0000000

                       cryst. coord.
        k(    1) = (   0.0000000   0.0000000   0.0000000), wk =   1.0000000

     Dense  grid:  6701457 G-vectors     FFT dimensions: ( 240, 240, 240)

     Smooth grid:  1289759 G-vectors     FFT dimensions: ( 135, 135, 135)

     Dynamical RAM for                 wfc:       2.61 MB

     Dynamical RAM for     wfc (w. buffer):       7.84 MB

     Dynamical RAM for           str. fact:      12.78 MB

     Dynamical RAM for           local pot:       0.00 MB

     Dynamical RAM for          nlocal pot:       7.99 MB

     Dynamical RAM for                qrad:       1.12 MB

     Dynamical RAM for          rho,v,vnew:      77.90 MB

     Dynamical RAM for               rhoin:      25.97 MB

     Dynamical RAM for            rho*nmix:     204.51 MB

     Dynamical RAM for           G-vectors:      24.58 MB

     Dynamical RAM for          h,s,v(r/c):       0.00 MB

     Dynamical RAM for          <psi|beta>:       0.01 MB

     Dynamical RAM for      wfcinit/wfcrot:       8.01 MB

     Dynamical RAM for           addusdens:     345.11 MB

     Dynamical RAM for          addusforce:     536.87 MB

     Estimated static dynamical RAM per process >     421.42 MB

     Estimated max dynamical RAM per process >     958.28 MB

     Estimated total dynamical RAM >      14.97 GB
     Generating pointlists ...
     new r_m :   0.0284 (alat units)  0.8525 (a.u.) for type    1
     new r_m :   0.0284 (alat units)  0.8525 (a.u.) for type    2

     Initial potential from superposition of free atoms

     starting charge   25.99975, renormalised to   26.00000


     %%%%%%%%%%%%%%%%%%%%%%%%%%%%%%%%%%%%%%%%%%%%%%%%%%%%%%%%%%%%%%%%%%%%%%%%
     %                                                                      %
     % You are using vdW-DF, which was implemented by the Thonhauser group. %
     % Please cite the following two papers that made this development      %
     % possible and the two reviews that describe the various versions:     %
     %                                                                      %
     %   T. Thonhauser et al., PRL 115, 136402 (2015).                      %
     %   T. Thonhauser et al., PRB 76, 125112 (2007).                       %
     %   K. Berland et al., Rep. Prog. Phys. 78, 066501 (2015).             %
     %   D.C. Langreth et al., J. Phys.: Condens. Matter 21, 084203 (2009). %
     %                                                                      %
     %                                                                      %
     % If you are calculating the stress with vdW-DF, please also cite:     %
     %                                                                      %
     %   R. Sabatini et al., J. Phys.: Condens. Matter 24, 424209 (2012).   %
     %                                                                      %
     %%%%%%%%%%%%%%%%%%%%%%%%%%%%%%%%%%%%%%%%%%%%%%%%%%%%%%%%%%%%%%%%%%%%%%%%


     Carrying out vdW-DF run using the following parameters:
     Nqs    =  20  Npoints =  1024  r_max =  100.000
     q_mesh =  0.00001000  0.04494208  0.09755937  0.15916263
               0.23128650  0.31572767  0.41458969  0.53033537
               0.66584808  0.82450364  1.01025438  1.22772762
               1.48234092  1.78043706  2.12944203  2.53805004
               3.01644009  3.57652955  4.23227104  5.00000000


     -----------------------------------------------
     Non-local corr. energy    =       0.30585673 Ry
     -----------------------------------------------

     Starting wfcs are   26 randomized atomic wfcs

     total cpu time spent up to now is       32.8 secs

     Self-consistent Calculation

     iteration #  1     ecut=    50.00 Ry     beta= 0.70
     CG style diagonalization
     ethr =  1.00E-02,  avg # of iterations =  3.5


     -----------------------------------------------
     Non-local corr. energy    =       0.40519125 Ry
     -----------------------------------------------


     total cpu time spent up to now is       60.2 secs

     total energy              =     -57.94857741 Ry
     estimated scf accuracy    <       1.76989778 Ry

     total magnetization       =     0.00 Bohr mag/cell
     absolute magnetization    =     2.74 Bohr mag/cell

     iteration #  2     ecut=    50.00 Ry     beta= 0.70
     CG style diagonalization
     ethr =  6.81E-03,  avg # of iterations =  3.7


     -----------------------------------------------
     Non-local corr. energy    =       0.41522382 Ry
     -----------------------------------------------


     total cpu time spent up to now is       84.0 secs

     total energy              =     -58.30182510 Ry
     estimated scf accuracy    <       0.29463615 Ry

     total magnetization       =     0.00 Bohr mag/cell
     absolute magnetization    =     1.12 Bohr mag/cell

     iteration #  3     ecut=    50.00 Ry     beta= 0.70
     CG style diagonalization
     ethr =  1.13E-03,  avg # of iterations =  3.9


     -----------------------------------------------
     Non-local corr. energy    =       0.42328039 Ry
     -----------------------------------------------


     total cpu time spent up to now is      109.9 secs

     total energy              =     -58.40878852 Ry
     estimated scf accuracy    <       0.06123764 Ry

     total magnetization       =    -0.00 Bohr mag/cell
     absolute magnetization    =     0.76 Bohr mag/cell

     iteration #  4     ecut=    50.00 Ry     beta= 0.70
     CG style diagonalization
     ethr =  2.36E-04,  avg # of iterations =  4.1


     -----------------------------------------------
     Non-local corr. energy    =       0.42325495 Ry
     -----------------------------------------------


     total cpu time spent up to now is      137.0 secs

     total energy              =     -58.43049791 Ry
     estimated scf accuracy    <       0.00419785 Ry

     total magnetization       =    -0.00 Bohr mag/cell
     absolute magnetization    =     0.30 Bohr mag/cell

     iteration #  5     ecut=    50.00 Ry     beta= 0.70
     CG style diagonalization
     ethr =  1.61E-05,  avg # of iterations =  4.5


     -----------------------------------------------
     Non-local corr. energy    =       0.42316271 Ry
     -----------------------------------------------


     total cpu time spent up to now is      160.9 secs

     total energy              =     -58.43246480 Ry
     estimated scf accuracy    <       0.00043158 Ry

     total magnetization       =     0.00 Bohr mag/cell
     absolute magnetization    =     0.15 Bohr mag/cell

     iteration #  6     ecut=    50.00 Ry     beta= 0.70
     CG style diagonalization
     ethr =  1.66E-06,  avg # of iterations =  4.4


     -----------------------------------------------
     Non-local corr. energy    =       0.42319123 Ry
     -----------------------------------------------


     total cpu time spent up to now is      187.4 secs

     total energy              =     -58.43285780 Ry
     estimated scf accuracy    <       0.00006612 Ry

     total magnetization       =    -0.00 Bohr mag/cell
     absolute magnetization    =     0.06 Bohr mag/cell

     iteration #  7     ecut=    50.00 Ry     beta= 0.70
     CG style diagonalization
     ethr =  2.54E-07,  avg # of iterations =  4.0


     -----------------------------------------------
     Non-local corr. energy    =       0.42319548 Ry
     -----------------------------------------------


     total cpu time spent up to now is      214.5 secs

     total energy              =     -58.43293248 Ry
     estimated scf accuracy    <       0.00000247 Ry

     total magnetization       =    -0.00 Bohr mag/cell
     absolute magnetization    =     0.01 Bohr mag/cell

     iteration #  8     ecut=    50.00 Ry     beta= 0.70
     CG style diagonalization
     ethr =  9.50E-09,  avg # of iterations =  3.9


     -----------------------------------------------
     Non-local corr. energy    =       0.42319981 Ry
     -----------------------------------------------


     total cpu time spent up to now is      237.3 secs

     total energy              =     -58.43293421 Ry
     estimated scf accuracy    <       0.00000019 Ry

     total magnetization       =    -0.00 Bohr mag/cell
     absolute magnetization    =     0.00 Bohr mag/cell

     iteration #  9     ecut=    50.00 Ry     beta= 0.70
     CG style diagonalization
     ethr =  7.37E-10,  avg # of iterations =  3.8


     -----------------------------------------------
     Non-local corr. energy    =       0.42319964 Ry
     -----------------------------------------------

 
     Magnetic moment per site:
     atom:    1    charge:    0.8674    magn:    0.0001    constr:    0.0000
     atom:    2    charge:    0.8614    magn:   -0.0000    constr:    0.0000
     atom:    3    charge:    0.8614    magn:   -0.0000    constr:    0.0000
     atom:    4    charge:    0.8674    magn:    0.0001    constr:    0.0000
     atom:    5    charge:    0.5102    magn:   -0.0000    constr:    0.0000
     atom:    6    charge:    0.5102    magn:   -0.0000    constr:    0.0000
     atom:    7    charge:    0.5108    magn:   -0.0000    constr:    0.0000
     atom:    8    charge:    0.5108    magn:   -0.0000    constr:    0.0000
     atom:    9    charge:    0.5108    magn:   -0.0000    constr:    0.0000
     atom:   10    charge:    0.5108    magn:   -0.0000    constr:    0.0000
     atom:   11    charge:    0.5132    magn:    0.0000    constr:    0.0000
     atom:   12    charge:    0.5132    magn:    0.0000    constr:    0.0000
     atom:   13    charge:    0.5132    magn:    0.0000    constr:    0.0000
     atom:   14    charge:    0.5132    magn:    0.0000    constr:    0.0000

     total cpu time spent up to now is      260.5 secs

     End of self-consistent calculation

 ------ SPIN UP ------------


          k = 0.0000 0.0000 0.0000 (161235 PWs)   bands (ev):

   -19.6617 -17.8580 -15.4872 -14.1368 -11.5048 -10.4202 -10.2406 -10.0357
    -8.9609  -8.5091  -8.1021  -7.8231  -7.8044  -0.8688  -0.4357  -0.3045
    -0.2782

     occupation numbers 
     1.0000   1.0000   1.0000   1.0000   1.0000   1.0000   1.0000   1.0000
     1.0000   1.0000   1.0000   1.0000   1.0000   0.0000   0.0000   0.0000
     0.0000

 ------ SPIN DOWN ----------


          k = 0.0000 0.0000 0.0000 (161235 PWs)   bands (ev):

   -19.6618 -17.8577 -15.4869 -14.1368 -11.5048 -10.4200 -10.2405 -10.0355
    -8.9607  -8.5089  -8.1020  -7.8230  -7.8045  -0.8689  -0.4357  -0.3045
    -0.2782

     occupation numbers 
     1.0000   1.0000   1.0000   1.0000   1.0000   1.0000   1.0000   1.0000
     1.0000   1.0000   1.0000   1.0000   1.0000   0.0000   0.0000   0.0000
     0.0000

     the Fermi energy is    -5.0969 ev

!    total energy              =     -58.43293432 Ry
     estimated scf accuracy    <          8.7E-09 Ry
     smearing contrib. (-TS)   =      -0.00000000 Ry
     internal energy E=F+TS    =     -58.43293432 Ry

     The total energy is F=E-TS. E is the sum of the following terms:
     one-electron contribution =    -261.91256835 Ry
     hartree contribution      =     134.02129569 Ry
     xc contribution           =     -22.46516664 Ry
     ewald contribution        =      91.92350499 Ry

     total magnetization       =    -0.00 Bohr mag/cell
     absolute magnetization    =     0.00 Bohr mag/cell

     convergence has been achieved in   9 iterations


     -----------------------------------------------
     Non-local corr. energy    =       0.42319964 Ry
     -----------------------------------------------


     Forces acting on atoms (cartesian axes, Ry/au):

     atom    1 type  1   force =     0.00257532    0.00144839    0.00000000
     atom    2 type  1   force =     0.00091104    0.00166763    0.00000000
     atom    3 type  1   force =    -0.00091104   -0.00166763    0.00000000
     atom    4 type  1   force =    -0.00257532   -0.00144839    0.00000000
     atom    5 type  2   force =     0.00639779    0.00346402    0.00000000
     atom    6 type  2   force =    -0.00639779   -0.00346402    0.00000000
     atom    7 type  2   force =    -0.00351092    0.00402699    0.00612696
     atom    8 type  2   force =    -0.00351092    0.00402699   -0.00612696
     atom    9 type  2   force =     0.00351092   -0.00402699    0.00612696
     atom   10 type  2   force =     0.00351092   -0.00402699   -0.00612696
     atom   11 type  2   force =     0.00472049   -0.00269127   -0.00628198
     atom   12 type  2   force =     0.00472049   -0.00269127    0.00628198
     atom   13 type  2   force =    -0.00472049    0.00269127   -0.00628198
     atom   14 type  2   force =    -0.00472049    0.00269127    0.00628198
     The non-local contrib.  to forces
     atom    1 type  1   force =     0.00171647    0.01812405    0.00000000
     atom    2 type  1   force =     0.01644115    0.02146198    0.00000000
     atom    3 type  1   force =    -0.01644115   -0.02146198    0.00000000
     atom    4 type  1   force =    -0.00171647   -0.01812405    0.00000000
     atom    5 type  2   force =    -0.17240763   -0.06940902    0.00000000
     atom    6 type  2   force =     0.17240763    0.06940902    0.00000000
     atom    7 type  2   force =     0.08671537   -0.06746368   -0.14922797
     atom    8 type  2   force =     0.08671537   -0.06746368    0.14922797
     atom    9 type  2   force =    -0.08671537    0.06746368   -0.14922797
     atom   10 type  2   force =    -0.08671537    0.06746368    0.14922797
     atom   11 type  2   force =    -0.09264062    0.06233846    0.14654317
     atom   12 type  2   force =    -0.09264062    0.06233846   -0.14654317
     atom   13 type  2   force =     0.09264062   -0.06233846    0.14654317
     atom   14 type  2   force =     0.09264062   -0.06233846   -0.14654317
     The ionic contribution  to forces
     atom    1 type  1   force =     1.23598018    4.96410585    0.00000000
     atom    2 type  1   force =     3.61793186   -0.48115912    0.00000000
     atom    3 type  1   force =    -3.61793186    0.48115912   -0.00000000
     atom    4 type  1   force =    -1.23598018   -4.96410585   -0.00000000
     atom    5 type  2   force =     2.55373247    1.55635084   -0.00000000
     atom    6 type  2   force =    -2.55373247   -1.55635084    0.00000000
     atom    7 type  2   force =    -1.00293775    1.72837445    2.15842418
     atom    8 type  2   force =    -1.00293775    1.72837445   -2.15842418
     atom    9 type  2   force =     1.00293775   -1.72837445    2.15842418
     atom   10 type  2   force =     1.00293775   -1.72837445   -2.15842418
     atom   11 type  2   force =     1.95857346   -0.89330299   -2.28646097
     atom   12 type  2   force =     1.95857346   -0.89330299    2.28646097
     atom   13 type  2   force =    -1.95857346    0.89330299   -2.28646097
     atom   14 type  2   force =    -1.95857346    0.89330299    2.28646097
     The local contribution  to forces
     atom    1 type  1   force =    -1.23504073   -4.98087029   -0.00000000
     atom    2 type  1   force =    -3.63352519    0.46184504   -0.00000000
     atom    3 type  1   force =     3.63352519   -0.46184504   -0.00000000
     atom    4 type  1   force =     1.23504073    4.98087029   -0.00000000
     atom    5 type  2   force =    -2.37492861   -1.48347724   -0.00000000
     atom    6 type  2   force =     2.37492861    1.48347724   -0.00000000
     atom    7 type  2   force =     0.91271575   -1.65688044   -2.00306903
     atom    8 type  2   force =     0.91271575   -1.65688044    2.00306903
     atom    9 type  2   force =    -0.91271575    1.65688044   -2.00306903
     atom   10 type  2   force =    -0.91271575    1.65688044    2.00306903
     atom   11 type  2   force =    -1.86120740    0.82827388    2.13363457
     atom   12 type  2   force =    -1.86120740    0.82827388   -2.13363457
     atom   13 type  2   force =     1.86120740   -0.82827388    2.13363457
     atom   14 type  2   force =     1.86120740   -0.82827388   -2.13363457
     The core correction contribution to forces
     atom    1 type  1   force =    -0.00004698    0.00010803   -0.00000000
     atom    2 type  1   force =     0.00009059   -0.00047727    0.00000000
     atom    3 type  1   force =    -0.00009059    0.00047727    0.00000000
     atom    4 type  1   force =     0.00004698   -0.00010803   -0.00000000
     atom    5 type  2   force =     0.00000000    0.00000000    0.00000000
     atom    6 type  2   force =     0.00000000    0.00000000    0.00000000
     atom    7 type  2   force =     0.00000000    0.00000000    0.00000000
     atom    8 type  2   force =     0.00000000    0.00000000    0.00000000
     atom    9 type  2   force =     0.00000000    0.00000000    0.00000000
     atom   10 type  2   force =     0.00000000    0.00000000    0.00000000
     atom   11 type  2   force =     0.00000000    0.00000000    0.00000000
     atom   12 type  2   force =     0.00000000    0.00000000    0.00000000
     atom   13 type  2   force =     0.00000000    0.00000000    0.00000000
     atom   14 type  2   force =     0.00000000    0.00000000    0.00000000
     The Hubbard contrib.    to forces
     atom    1 type  1   force =     0.00000000    0.00000000    0.00000000
     atom    2 type  1   force =     0.00000000    0.00000000    0.00000000
     atom    3 type  1   force =     0.00000000    0.00000000    0.00000000
     atom    4 type  1   force =     0.00000000    0.00000000    0.00000000
     atom    5 type  2   force =     0.00000000    0.00000000    0.00000000
     atom    6 type  2   force =     0.00000000    0.00000000    0.00000000
     atom    7 type  2   force =     0.00000000    0.00000000    0.00000000
     atom    8 type  2   force =     0.00000000    0.00000000    0.00000000
     atom    9 type  2   force =     0.00000000    0.00000000    0.00000000
     atom   10 type  2   force =     0.00000000    0.00000000    0.00000000
     atom   11 type  2   force =     0.00000000    0.00000000    0.00000000
     atom   12 type  2   force =     0.00000000    0.00000000    0.00000000
     atom   13 type  2   force =     0.00000000    0.00000000    0.00000000
     atom   14 type  2   force =     0.00000000    0.00000000    0.00000000
     The SCF correction term to forces
     atom    1 type  1   force =    -0.00003361   -0.00001924    0.00000000
     atom    2 type  1   force =    -0.00002738   -0.00000299    0.00000000
     atom    3 type  1   force =     0.00002738    0.00000299    0.00000000
     atom    4 type  1   force =     0.00003361    0.00001924    0.00000000
     atom    5 type  2   force =     0.00000156   -0.00000056    0.00000000
     atom    6 type  2   force =    -0.00000156    0.00000056    0.00000000
     atom    7 type  2   force =    -0.00000429   -0.00000333   -0.00000021
     atom    8 type  2   force =    -0.00000429   -0.00000333    0.00000021
     atom    9 type  2   force =     0.00000429    0.00000333   -0.00000021
     atom   10 type  2   force =     0.00000429    0.00000333    0.00000021
     atom   11 type  2   force =    -0.00000494   -0.00000063    0.00000126
     atom   12 type  2   force =    -0.00000494   -0.00000063   -0.00000126
     atom   13 type  2   force =     0.00000494    0.00000063    0.00000126
     atom   14 type  2   force =     0.00000494    0.00000063   -0.00000126

     Total force =     0.025900     Total SCF correction =     0.000069

     BFGS Geometry Optimization

     number of scf cycles    =   1
     number of bfgs steps    =   0

     energy   new            =     -58.4329343199 Ry

     new trust radius        =       0.0083059764 bohr
     new conv_thr            =       0.0000000100 Ry


ATOMIC_POSITIONS (angstrom)
C             0.7039438004        1.8216394555        0.0000000000
C             0.7030631005        0.2972074743        0.0000000000
C            -0.7030631005       -0.2972074743        0.0000000000
C            -0.7039438004       -1.8216394555        0.0000000000
H             1.7231945670        2.2241730815        0.0000000000
H            -1.7231945670       -2.2241730815        0.0000000000
H             0.1862961030        2.2124929939        0.8868562498
H             0.1862961030        2.2124929939       -0.8868562498
H            -0.1862961030       -2.2124929939        0.8868562498
H            -0.1862961030       -2.2124929939       -0.8868562498
H             1.2502049780       -0.0740841607       -0.8808932786
H             1.2502049780       -0.0740841607        0.8808932786
H            -1.2502049780        0.0740841607       -0.8808932786
H            -1.2502049780        0.0740841607        0.8808932786



     Writing output data file ./trans-butane-vdw-df.save/
     NEW-OLD atomic charge density approx. for the potential


     -----------------------------------------------
     Non-local corr. energy    =       0.42313759 Ry
     -----------------------------------------------

     Generating pointlists ...

     total cpu time spent up to now is      301.1 secs

     Self-consistent Calculation

     iteration #  1     ecut=    50.00 Ry     beta= 0.70
     CG style diagonalization
     ethr =  1.00E-06,  avg # of iterations =  3.5


     -----------------------------------------------
     Non-local corr. energy    =       0.42293591 Ry
     -----------------------------------------------


     total cpu time spent up to now is      327.3 secs

     total energy              =     -58.43330518 Ry
     estimated scf accuracy    <       0.00021922 Ry

     total magnetization       =    -0.00 Bohr mag/cell
     absolute magnetization    =     0.00 Bohr mag/cell

     iteration #  2     ecut=    50.00 Ry     beta= 0.70
     CG style diagonalization
     ethr =  8.43E-07,  avg # of iterations =  3.8


     -----------------------------------------------
     Non-local corr. energy    =       0.42299759 Ry
     -----------------------------------------------


     total cpu time spent up to now is      354.6 secs

     total energy              =     -58.43335759 Ry
     estimated scf accuracy    <       0.00014827 Ry

     total magnetization       =    -0.00 Bohr mag/cell
     absolute magnetization    =     0.00 Bohr mag/cell

     iteration #  3     ecut=    50.00 Ry     beta= 0.70
     CG style diagonalization
     ethr =  5.70E-07,  avg # of iterations =  3.6


     -----------------------------------------------
     Non-local corr. energy    =       0.42298921 Ry
     -----------------------------------------------


     total cpu time spent up to now is      378.6 secs

     total energy              =     -58.43339275 Ry
     estimated scf accuracy    <       0.00000171 Ry

     total magnetization       =     0.00 Bohr mag/cell
     absolute magnetization    =     0.00 Bohr mag/cell

     iteration #  4     ecut=    50.00 Ry     beta= 0.70
     CG style diagonalization
     ethr =  6.57E-09,  avg # of iterations =  3.8


     -----------------------------------------------
     Non-local corr. energy    =       0.42299086 Ry
     -----------------------------------------------


     total cpu time spent up to now is      405.1 secs

     total energy              =     -58.43339354 Ry
     estimated scf accuracy    <       0.00000027 Ry

     total magnetization       =    -0.00 Bohr mag/cell
     absolute magnetization    =     0.00 Bohr mag/cell

     iteration #  5     ecut=    50.00 Ry     beta= 0.70
     CG style diagonalization
     ethr =  1.05E-09,  avg # of iterations =  3.7


     -----------------------------------------------
     Non-local corr. energy    =       0.42299303 Ry
     -----------------------------------------------

 
     Magnetic moment per site:
     atom:    1    charge:    0.8653    magn:    0.0000    constr:    0.0000
     atom:    2    charge:    0.8595    magn:   -0.0000    constr:    0.0000
     atom:    3    charge:    0.8595    magn:   -0.0000    constr:    0.0000
     atom:    4    charge:    0.8653    magn:    0.0000    constr:    0.0000
     atom:    5    charge:    0.5085    magn:   -0.0000    constr:    0.0000
     atom:    6    charge:    0.5085    magn:   -0.0000    constr:    0.0000
     atom:    7    charge:    0.5078    magn:   -0.0000    constr:    0.0000
     atom:    8    charge:    0.5078    magn:   -0.0000    constr:    0.0000
     atom:    9    charge:    0.5078    magn:   -0.0000    constr:    0.0000
     atom:   10    charge:    0.5078    magn:   -0.0000    constr:    0.0000
     atom:   11    charge:    0.5102    magn:    0.0000    constr:    0.0000
     atom:   12    charge:    0.5102    magn:    0.0000    constr:    0.0000
     atom:   13    charge:    0.5102    magn:    0.0000    constr:    0.0000
     atom:   14    charge:    0.5102    magn:    0.0000    constr:    0.0000

     total cpu time spent up to now is      428.4 secs

     End of self-consistent calculation

 ------ SPIN UP ------------


          k = 0.0000 0.0000 0.0000 (161235 PWs)   bands (ev):

   -19.6464 -17.8445 -15.4634 -14.1080 -11.4843 -10.4123 -10.2425 -10.0161
    -8.9533  -8.4877  -8.1078  -7.8088  -7.8066  -0.8728  -0.4409  -0.3101
    -0.2845

     occupation numbers 
     1.0000   1.0000   1.0000   1.0000   1.0000   1.0000   1.0000   1.0000
     1.0000   1.0000   1.0000   1.0000   1.0000   0.0000   0.0000   0.0000
     0.0000

 ------ SPIN DOWN ----------


          k = 0.0000 0.0000 0.0000 (161235 PWs)   bands (ev):

   -19.6464 -17.8444 -15.4634 -14.1080 -11.4843 -10.4123 -10.2425 -10.0161
    -8.9533  -8.4877  -8.1078  -7.8088  -7.8066  -0.8729  -0.4409  -0.3101
    -0.2845

     occupation numbers 
     1.0000   1.0000   1.0000   1.0000   1.0000   1.0000   1.0000   1.0000
     1.0000   1.0000   1.0000   1.0000   1.0000   0.0000   0.0000   0.0000
     0.0000

     the Fermi energy is    -5.0977 ev

!    total energy              =     -58.43339360 Ry
     estimated scf accuracy    <          9.8E-09 Ry
     smearing contrib. (-TS)   =      -0.00000000 Ry
     internal energy E=F+TS    =     -58.43339360 Ry

     The total energy is F=E-TS. E is the sum of the following terms:
     one-electron contribution =    -261.42347989 Ry
     hartree contribution      =     133.76990553 Ry
     xc contribution           =     -22.43597975 Ry
     ewald contribution        =      91.65616050 Ry

     total magnetization       =     0.00 Bohr mag/cell
     absolute magnetization    =     0.00 Bohr mag/cell

     convergence has been achieved in   5 iterations


     -----------------------------------------------
     Non-local corr. energy    =       0.42299303 Ry
     -----------------------------------------------


     Forces acting on atoms (cartesian axes, Ry/au):

     atom    1 type  1   force =    -0.00057694    0.00566829    0.00000000
     atom    2 type  1   force =     0.00464519   -0.00259357    0.00000000
     atom    3 type  1   force =    -0.00464519    0.00259357    0.00000000
     atom    4 type  1   force =     0.00057694   -0.00566829    0.00000000
     atom    5 type  2   force =     0.00346123    0.00242781    0.00000000
     atom    6 type  2   force =    -0.00346123   -0.00242781    0.00000000
     atom    7 type  2   force =    -0.00059676    0.00212220    0.00148152
     atom    8 type  2   force =    -0.00059676    0.00212220   -0.00148152
     atom    9 type  2   force =     0.00059676   -0.00212220    0.00148152
     atom   10 type  2   force =     0.00059676   -0.00212220   -0.00148152
     atom   11 type  2   force =     0.00212203   -0.00083008   -0.00189849
     atom   12 type  2   force =     0.00212203   -0.00083008    0.00189849
     atom   13 type  2   force =    -0.00212203    0.00083008   -0.00189849
     atom   14 type  2   force =    -0.00212203    0.00083008    0.00189849
     The non-local contrib.  to forces
     atom    1 type  1   force =    -0.00129052    0.02072148    0.00000000
     atom    2 type  1   force =     0.01928461    0.01785420    0.00000000
     atom    3 type  1   force =    -0.01928461   -0.01785420    0.00000000
     atom    4 type  1   force =     0.00129052   -0.02072148    0.00000000
     atom    5 type  2   force =    -0.17152090   -0.06909254    0.00000000
     atom    6 type  2   force =     0.17152090    0.06909254    0.00000000
     atom    7 type  2   force =     0.08596454   -0.06664425   -0.14745598
     atom    8 type  2   force =     0.08596454   -0.06664425    0.14745598
     atom    9 type  2   force =    -0.08596454    0.06664425   -0.14745598
     atom   10 type  2   force =    -0.08596454    0.06664425    0.14745598
     atom   11 type  2   force =    -0.09158567    0.06181681    0.14491002
     atom   12 type  2   force =    -0.09158567    0.06181681   -0.14491002
     atom   13 type  2   force =     0.09158567   -0.06181681    0.14491002
     atom   14 type  2   force =     0.09158567   -0.06181681   -0.14491002
     The ionic contribution  to forces
     atom    1 type  1   force =     1.23294583    4.97077371   -0.00000000
     atom    2 type  1   force =     3.61684144   -0.49009170   -0.00000000
     atom    3 type  1   force =    -3.61684144    0.49009170    0.00000000
     atom    4 type  1   force =    -1.23294583   -4.97077371    0.00000000
     atom    5 type  2   force =     2.54342277    1.55121243   -0.00000000
     atom    6 type  2   force =    -2.54342277   -1.55121243    0.00000000
     atom    7 type  2   force =    -0.99685995    1.71908615    2.14276539
     atom    8 type  2   force =    -0.99685995    1.71908615   -2.14276539
     atom    9 type  2   force =     0.99685995   -1.71908615    2.14276539
     atom   10 type  2   force =     0.99685995   -1.71908615   -2.14276539
     atom   11 type  2   force =     1.94734446   -0.88863136   -2.27178045
     atom   12 type  2   force =     1.94734446   -0.88863136    2.27178045
     atom   13 type  2   force =    -1.94734446    0.88863136   -2.27178045
     atom   14 type  2   force =    -1.94734446    0.88863136    2.27178045
     The local contribution  to forces
     atom    1 type  1   force =    -1.23219498   -4.98586770   -0.00000000
     atom    2 type  1   force =    -3.63150639    0.47012075   -0.00000000
     atom    3 type  1   force =     3.63150639   -0.47012075   -0.00000000
     atom    4 type  1   force =     1.23219498    4.98586770   -0.00000000
     atom    5 type  2   force =    -2.36844316   -1.47969479   -0.00000000
     atom    6 type  2   force =     2.36844316    1.47969479   -0.00000000
     atom    7 type  2   force =     0.91030448   -1.65032264   -1.99383108
     atom    8 type  2   force =     0.91030448   -1.65032264    1.99383108
     atom    9 type  2   force =    -0.91030448    1.65032264   -1.99383108
     atom   10 type  2   force =    -0.91030448    1.65032264    1.99383108
     atom   11 type  2   force =    -1.85363098    0.82598701    2.12496174
     atom   12 type  2   force =    -1.85363098    0.82598701   -2.12496174
     atom   13 type  2   force =     1.85363098   -0.82598701    2.12496174
     atom   14 type  2   force =     1.85363098   -0.82598701   -2.12496174
     The core correction contribution to forces
     atom    1 type  1   force =    -0.00001112    0.00005645    0.00000000
     atom    2 type  1   force =     0.00004562   -0.00042534    0.00000000
     atom    3 type  1   force =    -0.00004562    0.00042534    0.00000000
     atom    4 type  1   force =     0.00001112   -0.00005645    0.00000000
     atom    5 type  2   force =     0.00000000    0.00000000    0.00000000
     atom    6 type  2   force =     0.00000000    0.00000000    0.00000000
     atom    7 type  2   force =     0.00000000    0.00000000    0.00000000
     atom    8 type  2   force =     0.00000000    0.00000000    0.00000000
     atom    9 type  2   force =     0.00000000    0.00000000    0.00000000
     atom   10 type  2   force =     0.00000000    0.00000000    0.00000000
     atom   11 type  2   force =     0.00000000    0.00000000    0.00000000
     atom   12 type  2   force =     0.00000000    0.00000000    0.00000000
     atom   13 type  2   force =     0.00000000    0.00000000    0.00000000
     atom   14 type  2   force =     0.00000000    0.00000000    0.00000000
     The Hubbard contrib.    to forces
     atom    1 type  1   force =     0.00000000    0.00000000    0.00000000
     atom    2 type  1   force =     0.00000000    0.00000000    0.00000000
     atom    3 type  1   force =     0.00000000    0.00000000    0.00000000
     atom    4 type  1   force =     0.00000000    0.00000000    0.00000000
     atom    5 type  2   force =     0.00000000    0.00000000    0.00000000
     atom    6 type  2   force =     0.00000000    0.00000000    0.00000000
     atom    7 type  2   force =     0.00000000    0.00000000    0.00000000
     atom    8 type  2   force =     0.00000000    0.00000000    0.00000000
     atom    9 type  2   force =     0.00000000    0.00000000    0.00000000
     atom   10 type  2   force =     0.00000000    0.00000000    0.00000000
     atom   11 type  2   force =     0.00000000    0.00000000    0.00000000
     atom   12 type  2   force =     0.00000000    0.00000000    0.00000000
     atom   13 type  2   force =     0.00000000    0.00000000    0.00000000
     atom   14 type  2   force =     0.00000000    0.00000000    0.00000000
     The SCF correction term to forces
     atom    1 type  1   force =    -0.00002614   -0.00001565    0.00000000
     atom    2 type  1   force =    -0.00002009   -0.00005148   -0.00000000
     atom    3 type  1   force =     0.00002009    0.00005148    0.00000000
     atom    4 type  1   force =     0.00002614    0.00001565    0.00000000
     atom    5 type  2   force =     0.00000251    0.00000271    0.00000000
     atom    6 type  2   force =    -0.00000251   -0.00000271    0.00000000
     atom    7 type  2   force =    -0.00000582    0.00000295    0.00000320
     atom    8 type  2   force =    -0.00000582    0.00000295   -0.00000320
     atom    9 type  2   force =     0.00000582   -0.00000295    0.00000320
     atom   10 type  2   force =     0.00000582   -0.00000295   -0.00000320
     atom   11 type  2   force =    -0.00000577   -0.00000254    0.00001020
     atom   12 type  2   force =    -0.00000577   -0.00000254   -0.00001020
     atom   13 type  2   force =     0.00000577    0.00000254    0.00001020
     atom   14 type  2   force =     0.00000577    0.00000254   -0.00001020

     Total force =     0.014856     Total SCF correction =     0.000094

     number of scf cycles    =   2
     number of bfgs steps    =   1

     energy   old            =     -58.4329343199 Ry
     energy   new            =     -58.4333935993 Ry

     CASE: energy  _new < energy  _old

     new trust radius        =       0.0102376264 bohr
     new conv_thr            =       0.0000000005 Ry


ATOMIC_POSITIONS (angstrom)
C             0.7041154849        1.8267905936        0.0000000000
C             0.7072139505        0.2954462153        0.0000000000
C            -0.7072139505       -0.2954462153        0.0000000000
C            -0.7041154849       -1.8267905936        0.0000000000
H             1.7277493305        2.2271062772        0.0000000000
H            -1.7277493305       -2.2271062772        0.0000000000
H             0.1848953146        2.2153123357        0.8896719975
H             0.1848953146        2.2153123357       -0.8896719975
H            -0.1848953146       -2.2153123357        0.8896719975
H            -0.1848953146       -2.2153123357       -0.8896719975
H             1.2532014485       -0.0754722285       -0.8841003473
H             1.2532014485       -0.0754722285        0.8841003473
H            -1.2532014485        0.0754722285       -0.8841003473
H            -1.2532014485        0.0754722285        0.8841003473



     Writing output data file ./trans-butane-vdw-df.save/
     NEW-OLD atomic charge density approx. for the potential


     -----------------------------------------------
     Non-local corr. energy    =       0.42320346 Ry
     -----------------------------------------------

     Generating pointlists ...

     total cpu time spent up to now is      463.8 secs

     Self-consistent Calculation

     iteration #  1     ecut=    50.00 Ry     beta= 0.70
     CG style diagonalization
     ethr =  1.00E-06,  avg # of iterations =  4.6


     -----------------------------------------------
     Non-local corr. energy    =       0.42307725 Ry
     -----------------------------------------------


     total cpu time spent up to now is      491.0 secs

     total energy              =     -58.43353010 Ry
     estimated scf accuracy    <       0.00026767 Ry

     total magnetization       =    -0.00 Bohr mag/cell
     absolute magnetization    =     0.00 Bohr mag/cell

     iteration #  2     ecut=    50.00 Ry     beta= 0.70
     CG style diagonalization
     ethr =  1.03E-06,  avg # of iterations =  3.8


     -----------------------------------------------
     Non-local corr. energy    =       0.42312279 Ry
     -----------------------------------------------


     total cpu time spent up to now is      517.5 secs

     total energy              =     -58.43359106 Ry
     estimated scf accuracy    <       0.00017742 Ry

     total magnetization       =     0.00 Bohr mag/cell
     absolute magnetization    =     0.00 Bohr mag/cell

     iteration #  3     ecut=    50.00 Ry     beta= 0.70
     CG style diagonalization
     ethr =  6.82E-07,  avg # of iterations =  3.6


     -----------------------------------------------
     Non-local corr. energy    =       0.42310480 Ry
     -----------------------------------------------


     total cpu time spent up to now is      541.9 secs

     total energy              =     -58.43363466 Ry
     estimated scf accuracy    <       0.00000233 Ry

     total magnetization       =    -0.00 Bohr mag/cell
     absolute magnetization    =     0.00 Bohr mag/cell

     iteration #  4     ecut=    50.00 Ry     beta= 0.70
     CG style diagonalization
     ethr =  8.96E-09,  avg # of iterations =  3.8


     -----------------------------------------------
     Non-local corr. energy    =       0.42310315 Ry
     -----------------------------------------------


     total cpu time spent up to now is      567.9 secs

     total energy              =     -58.43363544 Ry
     estimated scf accuracy    <       0.00000042 Ry

     total magnetization       =     0.00 Bohr mag/cell
     absolute magnetization    =     0.00 Bohr mag/cell

     iteration #  5     ecut=    50.00 Ry     beta= 0.70
     CG style diagonalization
     ethr =  1.62E-09,  avg # of iterations =  3.6


     -----------------------------------------------
     Non-local corr. energy    =       0.42310472 Ry
     -----------------------------------------------


     total cpu time spent up to now is      594.1 secs

     total energy              =     -58.43363551 Ry
     estimated scf accuracy    <          9.6E-09 Ry

     total magnetization       =     0.00 Bohr mag/cell
     absolute magnetization    =     0.00 Bohr mag/cell

     iteration #  6     ecut=    50.00 Ry     beta= 0.70
     CG style diagonalization
     ethr =  3.71E-11,  avg # of iterations =  3.4


     -----------------------------------------------
     Non-local corr. energy    =       0.42310519 Ry
     -----------------------------------------------


     total cpu time spent up to now is      618.0 secs

     total energy              =     -58.43363551 Ry
     estimated scf accuracy    <          1.4E-09 Ry

     total magnetization       =     0.00 Bohr mag/cell
     absolute magnetization    =     0.00 Bohr mag/cell

     iteration #  7     ecut=    50.00 Ry     beta= 0.70
     CG style diagonalization
     ethr =  5.49E-12,  avg # of iterations =  3.7


     -----------------------------------------------
     Non-local corr. energy    =       0.42310529 Ry
     -----------------------------------------------

 
     Magnetic moment per site:
     atom:    1    charge:    0.8629    magn:    0.0000    constr:    0.0000
     atom:    2    charge:    0.8569    magn:   -0.0000    constr:    0.0000
     atom:    3    charge:    0.8569    magn:   -0.0000    constr:    0.0000
     atom:    4    charge:    0.8629    magn:    0.0000    constr:    0.0000
     atom:    5    charge:    0.5062    magn:   -0.0000    constr:    0.0000
     atom:    6    charge:    0.5062    magn:   -0.0000    constr:    0.0000
     atom:    7    charge:    0.5063    magn:   -0.0000    constr:    0.0000
     atom:    8    charge:    0.5063    magn:   -0.0000    constr:    0.0000
     atom:    9    charge:    0.5063    magn:   -0.0000    constr:    0.0000
     atom:   10    charge:    0.5063    magn:   -0.0000    constr:    0.0000
     atom:   11    charge:    0.5089    magn:    0.0000    constr:    0.0000
     atom:   12    charge:    0.5089    magn:    0.0000    constr:    0.0000
     atom:   13    charge:    0.5089    magn:    0.0000    constr:    0.0000
     atom:   14    charge:    0.5089    magn:    0.0000    constr:    0.0000

     total cpu time spent up to now is      643.3 secs

     End of self-consistent calculation

 ------ SPIN UP ------------


          k = 0.0000 0.0000 0.0000 (161235 PWs)   bands (ev):

   -19.5933 -17.8020 -15.4377 -14.0967 -11.4609 -10.3880 -10.1949 -10.0047
    -8.9484  -8.4972  -8.0892  -7.8355  -7.7793  -0.8764  -0.4454  -0.3124
    -0.2857

     occupation numbers 
     1.0000   1.0000   1.0000   1.0000   1.0000   1.0000   1.0000   1.0000
     1.0000   1.0000   1.0000   1.0000   1.0000   0.0000   0.0000   0.0000
     0.0000

 ------ SPIN DOWN ----------


          k = 0.0000 0.0000 0.0000 (161235 PWs)   bands (ev):

   -19.5933 -17.8020 -15.4377 -14.0967 -11.4609 -10.3880 -10.1949 -10.0047
    -8.9484  -8.4972  -8.0892  -7.8355  -7.7793  -0.8764  -0.4454  -0.3124
    -0.2857

     occupation numbers 
     1.0000   1.0000   1.0000   1.0000   1.0000   1.0000   1.0000   1.0000
     1.0000   1.0000   1.0000   1.0000   1.0000   0.0000   0.0000   0.0000
     0.0000

     the Fermi energy is    -5.0854 ev

!    total energy              =     -58.43363551 Ry
     estimated scf accuracy    <          3.9E-11 Ry
     smearing contrib. (-TS)   =      -0.00000000 Ry
     internal energy E=F+TS    =     -58.43363551 Ry

     The total energy is F=E-TS. E is the sum of the following terms:
     one-electron contribution =    -260.64433738 Ry
     hartree contribution      =     133.37912738 Ry
     xc contribution           =     -22.40569973 Ry
     ewald contribution        =      91.23727422 Ry

     total magnetization       =    -0.00 Bohr mag/cell
     absolute magnetization    =     0.00 Bohr mag/cell

     convergence has been achieved in   7 iterations


     -----------------------------------------------
     Non-local corr. energy    =       0.42310529 Ry
     -----------------------------------------------


     Forces acting on atoms (cartesian axes, Ry/au):

     atom    1 type  1   force =     0.00208257    0.00149557    0.00000000
     atom    2 type  1   force =    -0.00076794    0.00156866    0.00000000
     atom    3 type  1   force =     0.00076794   -0.00156866    0.00000000
     atom    4 type  1   force =    -0.00208257   -0.00149557    0.00000000
     atom    5 type  2   force =    -0.00082380    0.00190856    0.00000000
     atom    6 type  2   force =     0.00082380   -0.00190856    0.00000000
     atom    7 type  2   force =     0.00098154    0.00127281   -0.00111177
     atom    8 type  2   force =     0.00098154    0.00127281    0.00111177
     atom    9 type  2   force =    -0.00098154   -0.00127281   -0.00111177
     atom   10 type  2   force =    -0.00098154   -0.00127281    0.00111177
     atom   11 type  2   force =     0.00084864    0.00001464    0.00054926
     atom   12 type  2   force =     0.00084864    0.00001464   -0.00054926
     atom   13 type  2   force =    -0.00084864   -0.00001464    0.00054926
     atom   14 type  2   force =    -0.00084864   -0.00001464   -0.00054926
     The non-local contrib.  to forces
     atom    1 type  1   force =     0.00111607    0.01680855    0.00000000
     atom    2 type  1   force =     0.01438264    0.02136468    0.00000000
     atom    3 type  1   force =    -0.01438264   -0.02136468    0.00000000
     atom    4 type  1   force =    -0.00111607   -0.01680855    0.00000000
     atom    5 type  2   force =    -0.17050530   -0.06773367    0.00000000
     atom    6 type  2   force =     0.17050530    0.06773367    0.00000000
     atom    7 type  2   force =     0.08566106   -0.06572507   -0.14695684
     atom    8 type  2   force =     0.08566106   -0.06572507    0.14695684
     atom    9 type  2   force =    -0.08566106    0.06572507   -0.14695684
     atom   10 type  2   force =    -0.08566106    0.06572507    0.14695684
     atom   11 type  2   force =    -0.09082172    0.06136502    0.14469203
     atom   12 type  2   force =    -0.09082172    0.06136502   -0.14469203
     atom   13 type  2   force =     0.09082172   -0.06136502    0.14469203
     atom   14 type  2   force =     0.09082172   -0.06136502   -0.14469203
     The ionic contribution  to forces
     atom    1 type  1   force =     1.22096085    4.94457214    0.00000000
     atom    2 type  1   force =     3.61007532   -0.49256878    0.00000000
     atom    3 type  1   force =    -3.61007532    0.49256878   -0.00000000
     atom    4 type  1   force =    -1.22096085   -4.94457214   -0.00000000
     atom    5 type  2   force =     2.53099129    1.53764396    0.00000000
     atom    6 type  2   force =    -2.53099129   -1.53764396   -0.00000000
     atom    7 type  2   force =    -0.99358600    1.70623188    2.13531123
     atom    8 type  2   force =    -0.99358600    1.70623188   -2.13531123
     atom    9 type  2   force =     0.99358600   -1.70623188    2.13531123
     atom   10 type  2   force =     0.99358600   -1.70623188   -2.13531123
     atom   11 type  2   force =     1.93504999   -0.88317493   -2.26489003
     atom   12 type  2   force =     1.93504999   -0.88317493    2.26489003
     atom   13 type  2   force =    -1.93504999    0.88317493   -2.26489003
     atom   14 type  2   force =    -1.93504999    0.88317493    2.26489003
     The local contribution  to forces
     atom    1 type  1   force =    -1.21995754   -4.95997342   -0.00000000
     atom    2 type  1   force =    -3.62531342    0.47323431   -0.00000000
     atom    3 type  1   force =     3.62531342   -0.47323431   -0.00000000
     atom    4 type  1   force =     1.21995754    4.95997342   -0.00000000
     atom    5 type  2   force =    -2.36130980   -1.46800128   -0.00000000
     atom    6 type  2   force =     2.36130980    1.46800128   -0.00000000
     atom    7 type  2   force =     0.90890697   -1.63923316   -1.98946608
     atom    8 type  2   force =     0.90890697   -1.63923316    1.98946608
     atom    9 type  2   force =    -0.90890697    1.63923316   -1.98946608
     atom   10 type  2   force =    -0.90890697    1.63923316    1.98946608
     atom   11 type  2   force =    -1.84337892    0.82182482    2.12074727
     atom   12 type  2   force =    -1.84337892    0.82182482   -2.12074727
     atom   13 type  2   force =     1.84337892   -0.82182482    2.12074727
     atom   14 type  2   force =     1.84337892   -0.82182482   -2.12074727
     The core correction contribution to forces
     atom    1 type  1   force =    -0.00003262    0.00009295    0.00000000
     atom    2 type  1   force =     0.00009245   -0.00046075   -0.00000000
     atom    3 type  1   force =    -0.00009245    0.00046075   -0.00000000
     atom    4 type  1   force =     0.00003262   -0.00009295    0.00000000
     atom    5 type  2   force =     0.00000000    0.00000000    0.00000000
     atom    6 type  2   force =     0.00000000    0.00000000    0.00000000
     atom    7 type  2   force =     0.00000000    0.00000000    0.00000000
     atom    8 type  2   force =     0.00000000    0.00000000    0.00000000
     atom    9 type  2   force =     0.00000000    0.00000000    0.00000000
     atom   10 type  2   force =     0.00000000    0.00000000    0.00000000
     atom   11 type  2   force =     0.00000000    0.00000000    0.00000000
     atom   12 type  2   force =     0.00000000    0.00000000    0.00000000
     atom   13 type  2   force =     0.00000000    0.00000000    0.00000000
     atom   14 type  2   force =     0.00000000    0.00000000    0.00000000
     The Hubbard contrib.    to forces
     atom    1 type  1   force =     0.00000000    0.00000000    0.00000000
     atom    2 type  1   force =     0.00000000    0.00000000    0.00000000
     atom    3 type  1   force =     0.00000000    0.00000000    0.00000000
     atom    4 type  1   force =     0.00000000    0.00000000    0.00000000
     atom    5 type  2   force =     0.00000000    0.00000000    0.00000000
     atom    6 type  2   force =     0.00000000    0.00000000    0.00000000
     atom    7 type  2   force =     0.00000000    0.00000000    0.00000000
     atom    8 type  2   force =     0.00000000    0.00000000    0.00000000
     atom    9 type  2   force =     0.00000000    0.00000000    0.00000000
     atom   10 type  2   force =     0.00000000    0.00000000    0.00000000
     atom   11 type  2   force =     0.00000000    0.00000000    0.00000000
     atom   12 type  2   force =     0.00000000    0.00000000    0.00000000
     atom   13 type  2   force =     0.00000000    0.00000000    0.00000000
     atom   14 type  2   force =     0.00000000    0.00000000    0.00000000
     The SCF correction term to forces
     atom    1 type  1   force =    -0.00000419   -0.00000465   -0.00000000
     atom    2 type  1   force =    -0.00000494   -0.00000081   -0.00000000
     atom    3 type  1   force =     0.00000494    0.00000081    0.00000000
     atom    4 type  1   force =     0.00000419    0.00000465   -0.00000000
     atom    5 type  2   force =     0.00000000   -0.00000044   -0.00000000
     atom    6 type  2   force =    -0.00000000    0.00000044   -0.00000000
     atom    7 type  2   force =    -0.00000049   -0.00000084   -0.00000008
     atom    8 type  2   force =    -0.00000049   -0.00000084    0.00000008
     atom    9 type  2   force =     0.00000049    0.00000084   -0.00000008
     atom   10 type  2   force =     0.00000049    0.00000084    0.00000008
     atom   11 type  2   force =    -0.00000071   -0.00000028   -0.00000001
     atom   12 type  2   force =    -0.00000071   -0.00000028    0.00000001
     atom   13 type  2   force =     0.00000071    0.00000028   -0.00000001
     atom   14 type  2   force =     0.00000071    0.00000028    0.00000001

     Total force =     0.006874     Total SCF correction =     0.000012

     number of scf cycles    =   3
     number of bfgs steps    =   2

     energy   old            =     -58.4333935993 Ry
     energy   new            =     -58.4336355082 Ry

     CASE: energy  _new < energy  _old

     new trust radius        =       0.0034482528 bohr
     new conv_thr            =       0.0000000002 Ry


ATOMIC_POSITIONS (angstrom)
C             0.7052913836        1.8281859167        0.0000000000
C             0.7072606750        0.2961212172        0.0000000000
C            -0.7072606750       -0.2961212172        0.0000000000
C            -0.7052913836       -1.8281859167        0.0000000000
H             1.7278566294        2.2284992876        0.0000000000
H            -1.7278566294       -2.2284992876        0.0000000000
H             0.1852461491        2.2163510364        0.8894283306
H             0.1852461491        2.2163510364       -0.8894283306
H            -0.1852461491       -2.2163510364        0.8894283306
H            -0.1852461491       -2.2163510364       -0.8894283306
H             1.2540343483       -0.0756400768       -0.8842077432
H             1.2540343483       -0.0756400768        0.8842077432
H            -1.2540343483        0.0756400768       -0.8842077432
H            -1.2540343483        0.0756400768        0.8842077432



     Writing output data file ./trans-butane-vdw-df.save/
     NEW-OLD atomic charge density approx. for the potential


     -----------------------------------------------
     Non-local corr. energy    =       0.42316993 Ry
     -----------------------------------------------

     Generating pointlists ...

     total cpu time spent up to now is      682.5 secs

     Self-consistent Calculation

     iteration #  1     ecut=    50.00 Ry     beta= 0.70
     CG style diagonalization
     ethr =  1.00E-06,  avg # of iterations =  3.0

     Threshold (ethr) on eigenvalues was too large:
     Diagonalizing with lowered threshold

     CG style diagonalization
     ethr =  3.93E-08,  avg # of iterations =  3.8


     -----------------------------------------------
     Non-local corr. energy    =       0.42315574 Ry
     -----------------------------------------------


     total cpu time spent up to now is      716.8 secs

     total energy              =     -58.43367370 Ry
     estimated scf accuracy    <       0.00000900 Ry

     total magnetization       =    -0.00 Bohr mag/cell
     absolute magnetization    =     0.00 Bohr mag/cell

     iteration #  2     ecut=    50.00 Ry     beta= 0.70
     CG style diagonalization
     ethr =  3.46E-08,  avg # of iterations =  3.7


     -----------------------------------------------
     Non-local corr. energy    =       0.42315732 Ry
     -----------------------------------------------


     total cpu time spent up to now is      739.9 secs

     total energy              =     -58.43367521 Ry
     estimated scf accuracy    <       0.00000365 Ry

     total magnetization       =     0.00 Bohr mag/cell
     absolute magnetization    =     0.00 Bohr mag/cell

     iteration #  3     ecut=    50.00 Ry     beta= 0.70
     CG style diagonalization
     ethr =  1.40E-08,  avg # of iterations =  3.6


     -----------------------------------------------
     Non-local corr. energy    =       0.42315257 Ry
     -----------------------------------------------


     total cpu time spent up to now is      765.9 secs

     total energy              =     -58.43367624 Ry
     estimated scf accuracy    <       0.00000020 Ry

     total magnetization       =    -0.00 Bohr mag/cell
     absolute magnetization    =     0.00 Bohr mag/cell

     iteration #  4     ecut=    50.00 Ry     beta= 0.70
     CG style diagonalization
     ethr =  7.72E-10,  avg # of iterations =  3.5


     -----------------------------------------------
     Non-local corr. energy    =       0.42315254 Ry
     -----------------------------------------------


     total cpu time spent up to now is      793.2 secs

     total energy              =     -58.43367628 Ry
     estimated scf accuracy    <          3.1E-09 Ry

     total magnetization       =    -0.00 Bohr mag/cell
     absolute magnetization    =     0.00 Bohr mag/cell

     iteration #  5     ecut=    50.00 Ry     beta= 0.70
     CG style diagonalization
     ethr =  1.19E-11,  avg # of iterations =  3.8


     -----------------------------------------------
     Non-local corr. energy    =       0.42315247 Ry
     -----------------------------------------------


     total cpu time spent up to now is      816.5 secs

     total energy              =     -58.43367628 Ry
     estimated scf accuracy    <          5.0E-10 Ry

     total magnetization       =     0.00 Bohr mag/cell
     absolute magnetization    =     0.00 Bohr mag/cell

     iteration #  6     ecut=    50.00 Ry     beta= 0.70
     CG style diagonalization
     ethr =  1.94E-12,  avg # of iterations =  3.8


     -----------------------------------------------
     Non-local corr. energy    =       0.42315255 Ry
     -----------------------------------------------

 
     Magnetic moment per site:
     atom:    1    charge:    0.8629    magn:    0.0000    constr:    0.0000
     atom:    2    charge:    0.8564    magn:   -0.0000    constr:    0.0000
     atom:    3    charge:    0.8564    magn:   -0.0000    constr:    0.0000
     atom:    4    charge:    0.8629    magn:    0.0000    constr:    0.0000
     atom:    5    charge:    0.5068    magn:   -0.0000    constr:    0.0000
     atom:    6    charge:    0.5068    magn:   -0.0000    constr:    0.0000
     atom:    7    charge:    0.5062    magn:   -0.0000    constr:    0.0000
     atom:    8    charge:    0.5062    magn:   -0.0000    constr:    0.0000
     atom:    9    charge:    0.5062    magn:   -0.0000    constr:    0.0000
     atom:   10    charge:    0.5062    magn:   -0.0000    constr:    0.0000
     atom:   11    charge:    0.5084    magn:    0.0000    constr:    0.0000
     atom:   12    charge:    0.5084    magn:    0.0000    constr:    0.0000
     atom:   13    charge:    0.5084    magn:    0.0000    constr:    0.0000
     atom:   14    charge:    0.5084    magn:    0.0000    constr:    0.0000

     total cpu time spent up to now is      842.1 secs

     End of self-consistent calculation

 ------ SPIN UP ------------


          k = 0.0000 0.0000 0.0000 (161235 PWs)   bands (ev):

   -19.5857 -17.8010 -15.4413 -14.0935 -11.4521 -10.3884 -10.1985 -10.0009
    -8.9503  -8.4951  -8.0871  -7.8299  -7.7873  -0.8763  -0.4456  -0.3128
    -0.2855

     occupation numbers 
     1.0000   1.0000   1.0000   1.0000   1.0000   1.0000   1.0000   1.0000
     1.0000   1.0000   1.0000   1.0000   1.0000   0.0000   0.0000   0.0000
     0.0000

 ------ SPIN DOWN ----------


          k = 0.0000 0.0000 0.0000 (161235 PWs)   bands (ev):

   -19.5857 -17.8010 -15.4413 -14.0935 -11.4521 -10.3884 -10.1985 -10.0009
    -8.9503  -8.4951  -8.0871  -7.8299  -7.7873  -0.8763  -0.4456  -0.3128
    -0.2855

     occupation numbers 
     1.0000   1.0000   1.0000   1.0000   1.0000   1.0000   1.0000   1.0000
     1.0000   1.0000   1.0000   1.0000   1.0000   0.0000   0.0000   0.0000
     0.0000

     the Fermi energy is    -5.0833 ev

!    total energy              =     -58.43367628 Ry
     estimated scf accuracy    <          7.7E-11 Ry
     smearing contrib. (-TS)   =      -0.00000000 Ry
     internal energy E=F+TS    =     -58.43367628 Ry

     The total energy is F=E-TS. E is the sum of the following terms:
     one-electron contribution =    -260.52492443 Ry
     hartree contribution      =     133.31897509 Ry
     xc contribution           =     -22.40305569 Ry
     ewald contribution        =      91.17532875 Ry

     total magnetization       =     0.00 Bohr mag/cell
     absolute magnetization    =     0.00 Bohr mag/cell

     convergence has been achieved in   6 iterations


     -----------------------------------------------
     Non-local corr. energy    =       0.42315255 Ry
     -----------------------------------------------


     Forces acting on atoms (cartesian axes, Ry/au):

     atom    1 type  1   force =     0.00018439    0.00030886    0.00000000
     atom    2 type  1   force =     0.00016762    0.00065953    0.00000000
     atom    3 type  1   force =    -0.00016762   -0.00065953    0.00000000
     atom    4 type  1   force =    -0.00018439   -0.00030886    0.00000000
     atom    5 type  2   force =     0.00026370    0.00214155    0.00000000
     atom    6 type  2   force =    -0.00026370   -0.00214155    0.00000000
     atom    7 type  2   force =     0.00113011    0.00128593   -0.00109217
     atom    8 type  2   force =     0.00113011    0.00128593    0.00109217
     atom    9 type  2   force =    -0.00113011   -0.00128593   -0.00109217
     atom   10 type  2   force =    -0.00113011   -0.00128593    0.00109217
     atom   11 type  2   force =     0.00033420    0.00042920    0.00112852
     atom   12 type  2   force =     0.00033420    0.00042920   -0.00112852
     atom   13 type  2   force =    -0.00033420   -0.00042920    0.00112852
     atom   14 type  2   force =    -0.00033420   -0.00042920   -0.00112852
     The non-local contrib.  to forces
     atom    1 type  1   force =    -0.00072110    0.01538755    0.00000000
     atom    2 type  1   force =     0.01507045    0.02037340    0.00000000
     atom    3 type  1   force =    -0.01507045   -0.02037340    0.00000000
     atom    4 type  1   force =     0.00072110   -0.01538755    0.00000000
     atom    5 type  2   force =    -0.17092489   -0.06800130    0.00000000
     atom    6 type  2   force =     0.17092489    0.06800130    0.00000000
     atom    7 type  2   force =     0.08581039   -0.06562920   -0.14686801
     atom    8 type  2   force =     0.08581039   -0.06562920    0.14686801
     atom    9 type  2   force =    -0.08581039    0.06562920   -0.14686801
     atom   10 type  2   force =    -0.08581039    0.06562920    0.14686801
     atom   11 type  2   force =    -0.09072770    0.06136866    0.14430842
     atom   12 type  2   force =    -0.09072770    0.06136866   -0.14430842
     atom   13 type  2   force =     0.09072770   -0.06136866    0.14430842
     atom   14 type  2   force =     0.09072770   -0.06136866   -0.14430842
     The ionic contribution  to forces
     atom    1 type  1   force =     1.22153306    4.93546375    0.00000000
     atom    2 type  1   force =     3.60187960   -0.48953207    0.00000000
     atom    3 type  1   force =    -3.60187960    0.48953207    0.00000000
     atom    4 type  1   force =    -1.22153306   -4.93546375   -0.00000000
     atom    5 type  2   force =     2.53339879    1.53890257    0.00000000
     atom    6 type  2   force =    -2.53339879   -1.53890257   -0.00000000
     atom    7 type  2   force =    -0.99490140    1.70478100    2.13432008
     atom    8 type  2   force =    -0.99490140    1.70478100   -2.13432008
     atom    9 type  2   force =     0.99490140   -1.70478100    2.13432008
     atom   10 type  2   force =     0.99490140   -1.70478100   -2.13432008
     atom   11 type  2   force =     1.93331936   -0.88308907   -2.26107435
     atom   12 type  2   force =     1.93331936   -0.88308907    2.26107435
     atom   13 type  2   force =    -1.93331936    0.88308907   -2.26107435
     atom   14 type  2   force =    -1.93331936    0.88308907    2.26107435
     The local contribution  to forces
     atom    1 type  1   force =    -1.22061458   -4.95065899   -0.00000000
     atom    2 type  1   force =    -3.61687470    0.47027572   -0.00000000
     atom    3 type  1   force =     3.61687470   -0.47027572   -0.00000000
     atom    4 type  1   force =     1.22061458    4.95065899   -0.00000000
     atom    5 type  2   force =    -2.36221152   -1.46876077   -0.00000000
     atom    6 type  2   force =     2.36221152    1.46876077   -0.00000000
     atom    7 type  2   force =     0.91022164   -1.63786709   -1.98854547
     atom    8 type  2   force =     0.91022164   -1.63786709    1.98854547
     atom    9 type  2   force =    -0.91022164    1.63786709   -1.98854547
     atom   10 type  2   force =    -0.91022164    1.63786709    1.98854547
     atom   11 type  2   force =    -1.84225854    0.82215011    2.11789525
     atom   12 type  2   force =    -1.84225854    0.82215011   -2.11789525
     atom   13 type  2   force =     1.84225854   -0.82215011    2.11789525
     atom   14 type  2   force =     1.84225854   -0.82215011   -2.11789525
     The core correction contribution to forces
     atom    1 type  1   force =    -0.00001452    0.00011195    0.00000000
     atom    2 type  1   force =     0.00008856   -0.00045457   -0.00000000
     atom    3 type  1   force =    -0.00008856    0.00045457    0.00000000
     atom    4 type  1   force =     0.00001452   -0.00011195    0.00000000
     atom    5 type  2   force =     0.00000000    0.00000000    0.00000000
     atom    6 type  2   force =     0.00000000    0.00000000    0.00000000
     atom    7 type  2   force =     0.00000000    0.00000000    0.00000000
     atom    8 type  2   force =     0.00000000    0.00000000    0.00000000
     atom    9 type  2   force =     0.00000000    0.00000000    0.00000000
     atom   10 type  2   force =     0.00000000    0.00000000    0.00000000
     atom   11 type  2   force =     0.00000000    0.00000000    0.00000000
     atom   12 type  2   force =     0.00000000    0.00000000    0.00000000
     atom   13 type  2   force =     0.00000000    0.00000000    0.00000000
     atom   14 type  2   force =     0.00000000    0.00000000    0.00000000
     The Hubbard contrib.    to forces
     atom    1 type  1   force =     0.00000000    0.00000000    0.00000000
     atom    2 type  1   force =     0.00000000    0.00000000    0.00000000
     atom    3 type  1   force =     0.00000000    0.00000000    0.00000000
     atom    4 type  1   force =     0.00000000    0.00000000    0.00000000
     atom    5 type  2   force =     0.00000000    0.00000000    0.00000000
     atom    6 type  2   force =     0.00000000    0.00000000    0.00000000
     atom    7 type  2   force =     0.00000000    0.00000000    0.00000000
     atom    8 type  2   force =     0.00000000    0.00000000    0.00000000
     atom    9 type  2   force =     0.00000000    0.00000000    0.00000000
     atom   10 type  2   force =     0.00000000    0.00000000    0.00000000
     atom   11 type  2   force =     0.00000000    0.00000000    0.00000000
     atom   12 type  2   force =     0.00000000    0.00000000    0.00000000
     atom   13 type  2   force =     0.00000000    0.00000000    0.00000000
     atom   14 type  2   force =     0.00000000    0.00000000    0.00000000
     The SCF correction term to forces
     atom    1 type  1   force =     0.00000153    0.00000459   -0.00000000
     atom    2 type  1   force =     0.00000371   -0.00000295   -0.00000000
     atom    3 type  1   force =    -0.00000371    0.00000295   -0.00000000
     atom    4 type  1   force =    -0.00000153   -0.00000459   -0.00000000
     atom    5 type  2   force =     0.00000131    0.00000104   -0.00000000
     atom    6 type  2   force =    -0.00000131   -0.00000104   -0.00000000
     atom    7 type  2   force =    -0.00000051    0.00000123    0.00000123
     atom    8 type  2   force =    -0.00000051    0.00000123   -0.00000123
     atom    9 type  2   force =     0.00000051   -0.00000123    0.00000123
     atom   10 type  2   force =     0.00000051   -0.00000123   -0.00000123
     atom   11 type  2   force =     0.00000108   -0.00000050   -0.00000081
     atom   12 type  2   force =     0.00000108   -0.00000050    0.00000081
     atom   13 type  2   force =    -0.00000108    0.00000050   -0.00000081
     atom   14 type  2   force =    -0.00000108    0.00000050    0.00000081

     Total force =     0.005768     Total SCF correction =     0.000011

     number of scf cycles    =   4
     number of bfgs steps    =   3

     energy   old            =     -58.4336355082 Ry
     energy   new            =     -58.4336762764 Ry

     CASE: energy  _new < energy  _old

     new trust radius        =       0.0037930781 bohr
     new conv_thr            =            1.0E-10 Ry


ATOMIC_POSITIONS (angstrom)
C             0.7061289683        1.8293086233        0.0000000000
C             0.7074842058        0.2968191478        0.0000000000
C            -0.7074842058       -0.2968191478        0.0000000000
C            -0.7061289683       -1.8293086233        0.0000000000
H             1.7282794661        2.2304614556        0.0000000000
H            -1.7282794661       -2.2304614556        0.0000000000
H             0.1858772118        2.2177130933        0.8889643418
H             0.1858772118        2.2177130933       -0.8889643418
H            -0.1858772118       -2.2177130933        0.8889643418
H            -0.1858772118       -2.2177130933       -0.8889643418
H             1.2548490349       -0.0756262414       -0.8839471948
H             1.2548490349       -0.0756262414        0.8839471948
H            -1.2548490349        0.0756262414       -0.8839471948
H            -1.2548490349        0.0756262414        0.8839471948



     Writing output data file ./trans-butane-vdw-df.save/
     NEW-OLD atomic charge density approx. for the potential


     -----------------------------------------------
     Non-local corr. energy    =       0.42322297 Ry
     -----------------------------------------------

     Generating pointlists ...

     total cpu time spent up to now is      882.0 secs

     Self-consistent Calculation

     iteration #  1     ecut=    50.00 Ry     beta= 0.70
     CG style diagonalization
     ethr =  1.00E-06,  avg # of iterations =  2.8

     Threshold (ethr) on eigenvalues was too large:
     Diagonalizing with lowered threshold

     CG style diagonalization
     ethr =  3.42E-08,  avg # of iterations =  3.7


     -----------------------------------------------
     Non-local corr. energy    =       0.42321480 Ry
     -----------------------------------------------


     total cpu time spent up to now is      915.2 secs

     total energy              =     -58.43371662 Ry
     estimated scf accuracy    <       0.00000744 Ry

     total magnetization       =     0.00 Bohr mag/cell
     absolute magnetization    =     0.00 Bohr mag/cell

     iteration #  2     ecut=    50.00 Ry     beta= 0.70
     CG style diagonalization
     ethr =  2.86E-08,  avg # of iterations =  3.6


     -----------------------------------------------
     Non-local corr. energy    =       0.42321516 Ry
     -----------------------------------------------


     total cpu time spent up to now is      941.3 secs

     total energy              =     -58.43371765 Ry
     estimated scf accuracy    <       0.00000227 Ry

     total magnetization       =    -0.00 Bohr mag/cell
     absolute magnetization    =     0.00 Bohr mag/cell

     iteration #  3     ecut=    50.00 Ry     beta= 0.70
     CG style diagonalization
     ethr =  8.72E-09,  avg # of iterations =  3.6


     -----------------------------------------------
     Non-local corr. energy    =       0.42321039 Ry
     -----------------------------------------------


     total cpu time spent up to now is      965.0 secs

     total energy              =     -58.43371832 Ry
     estimated scf accuracy    <       0.00000024 Ry

     total magnetization       =    -0.00 Bohr mag/cell
     absolute magnetization    =     0.00 Bohr mag/cell

     iteration #  4     ecut=    50.00 Ry     beta= 0.70
     CG style diagonalization
     ethr =  9.11E-10,  avg # of iterations =  3.6


     -----------------------------------------------
     Non-local corr. energy    =       0.42321015 Ry
     -----------------------------------------------


     total cpu time spent up to now is      991.4 secs

     total energy              =     -58.43371836 Ry
     estimated scf accuracy    <          2.5E-09 Ry

[...]

     iteration #  5     ecut=    50.00 Ry     beta= 0.70
     CG style diagonalization
     ethr =  1.72E-05,  avg # of iterations =  4.5


     -----------------------------------------------
     Non-local corr. energy    =       0.42364820 Ry
     -----------------------------------------------


     total cpu time spent up to now is     3754.4 secs

     total energy              =     -58.43337916 Ry
     estimated scf accuracy    <       0.00047900 Ry

     total magnetization       =    -0.00 Bohr mag/cell
     absolute magnetization    =     0.17 Bohr mag/cell

     iteration #  6     ecut=    50.00 Ry     beta= 0.70
     CG style diagonalization
     ethr =  1.84E-06,  avg # of iterations =  4.4


     -----------------------------------------------
     Non-local corr. energy    =       0.42367400 Ry
     -----------------------------------------------


     total cpu time spent up to now is     3777.3 secs

     total energy              =     -58.43382219 Ry
     estimated scf accuracy    <       0.00006842 Ry

     total magnetization       =    -0.00 Bohr mag/cell
     absolute magnetization    =     0.06 Bohr mag/cell

     iteration #  7     ecut=    50.00 Ry     beta= 0.70
     CG style diagonalization
     ethr =  2.63E-07,  avg # of iterations =  4.0


     -----------------------------------------------
     Non-local corr. energy    =       0.42368529 Ry
     -----------------------------------------------


     total cpu time spent up to now is     3799.4 secs

     total energy              =     -58.43390490 Ry
     estimated scf accuracy    <       0.00000281 Ry

     total magnetization       =    -0.00 Bohr mag/cell
     absolute magnetization    =     0.01 Bohr mag/cell

     iteration #  8     ecut=    50.00 Ry     beta= 0.70
     CG style diagonalization
     ethr =  1.08E-08,  avg # of iterations =  4.0


     -----------------------------------------------
     Non-local corr. energy    =       0.42368975 Ry
     -----------------------------------------------


     total cpu time spent up to now is     3823.4 secs

     total energy              =     -58.43390724 Ry
     estimated scf accuracy    <       0.00000020 Ry

     total magnetization       =    -0.00 Bohr mag/cell
     absolute magnetization    =     0.00 Bohr mag/cell

     iteration #  9     ecut=    50.00 Ry     beta= 0.70
     CG style diagonalization
     ethr =  7.75E-10,  avg # of iterations =  3.8


     -----------------------------------------------
     Non-local corr. energy    =       0.42368982 Ry
     -----------------------------------------------


     total cpu time spent up to now is     3847.2 secs

     total energy              =     -58.43390734 Ry
     estimated scf accuracy    <          9.1E-09 Ry

     total magnetization       =     0.00 Bohr mag/cell
     absolute magnetization    =     0.00 Bohr mag/cell

     iteration # 10     ecut=    50.00 Ry     beta= 0.70
     CG style diagonalization
     ethr =  3.50E-11,  avg # of iterations =  4.1


     -----------------------------------------------
     Non-local corr. energy    =       0.42368959 Ry
     -----------------------------------------------


     total cpu time spent up to now is     3871.3 secs

     total energy              =     -58.43390735 Ry
     estimated scf accuracy    <          1.6E-09 Ry

     total magnetization       =    -0.00 Bohr mag/cell
     absolute magnetization    =     0.00 Bohr mag/cell

     iteration # 11     ecut=    50.00 Ry     beta= 0.70
     CG style diagonalization
     ethr =  6.12E-12,  avg # of iterations =  4.0


     -----------------------------------------------
     Non-local corr. energy    =       0.42368962 Ry
     -----------------------------------------------


     total cpu time spent up to now is     3895.2 secs

     total energy              =     -58.43390735 Ry
     estimated scf accuracy    <          1.1E-10 Ry

     total magnetization       =    -0.00 Bohr mag/cell
     absolute magnetization    =     0.00 Bohr mag/cell

     iteration # 12     ecut=    50.00 Ry     beta= 0.70
     CG style diagonalization
     ethr =  4.21E-13,  avg # of iterations =  4.3


     -----------------------------------------------
     Non-local corr. energy    =       0.42368958 Ry
     -----------------------------------------------

 
     Magnetic moment per site:
     atom:    1    charge:    0.8619    magn:    0.0000    constr:    0.0000
     atom:    2    charge:    0.8553    magn:   -0.0000    constr:    0.0000
     atom:    3    charge:    0.8553    magn:   -0.0000    constr:    0.0000
     atom:    4    charge:    0.8619    magn:    0.0000    constr:    0.0000
     atom:    5    charge:    0.5060    magn:   -0.0000    constr:    0.0000
     atom:    6    charge:    0.5060    magn:   -0.0000    constr:    0.0000
     atom:    7    charge:    0.5063    magn:   -0.0000    constr:    0.0000
     atom:    8    charge:    0.5063    magn:   -0.0000    constr:    0.0000
     atom:    9    charge:    0.5063    magn:   -0.0000    constr:    0.0000
     atom:   10    charge:    0.5063    magn:   -0.0000    constr:    0.0000
     atom:   11    charge:    0.5087    magn:    0.0000    constr:    0.0000
     atom:   12    charge:    0.5087    magn:    0.0000    constr:    0.0000
     atom:   13    charge:    0.5087    magn:    0.0000    constr:    0.0000
     atom:   14    charge:    0.5087    magn:    0.0000    constr:    0.0000

     total cpu time spent up to now is     3919.8 secs

     End of self-consistent calculation

 ------ SPIN UP ------------


          k = 0.0000 0.0000 0.0000 (161235 PWs)   bands (ev):

   -19.5452 -17.7958 -15.4685 -14.1019 -11.4179 -10.3702 -10.1877  -9.9970
    -8.9514  -8.5067  -8.0877  -7.8183  -7.8070  -0.8767  -0.4510  -0.3096
    -0.2790

     occupation numbers 
     1.0000   1.0000   1.0000   1.0000   1.0000   1.0000   1.0000   1.0000
     1.0000   1.0000   1.0000   1.0000   1.0000   0.0000   0.0000   0.0000
     0.0000

 ------ SPIN DOWN ----------


          k = 0.0000 0.0000 0.0000 (161235 PWs)   bands (ev):

   -19.5452 -17.7958 -15.4685 -14.1019 -11.4180 -10.3702 -10.1877  -9.9970
    -8.9514  -8.5067  -8.0877  -7.8183  -7.8070  -0.8767  -0.4510  -0.3096
    -0.2791

     occupation numbers 
     1.0000   1.0000   1.0000   1.0000   1.0000   1.0000   1.0000   1.0000
     1.0000   1.0000   1.0000   1.0000   1.0000   0.0000   0.0000   0.0000
     0.0000

     the Fermi energy is    -5.0683 ev

!    total energy              =     -58.43390735 Ry
     estimated scf accuracy    <          6.9E-12 Ry
     smearing contrib. (-TS)   =      -0.00000000 Ry
     internal energy E=F+TS    =     -58.43390735 Ry

     The total energy is F=E-TS. E is the sum of the following terms:
     one-electron contribution =    -259.75144506 Ry
     hartree contribution      =     132.93110387 Ry
     xc contribution           =     -22.39531211 Ry
     ewald contribution        =      90.78174594 Ry

     total magnetization       =    -0.00 Bohr mag/cell
     absolute magnetization    =     0.00 Bohr mag/cell

     convergence has been achieved in  12 iterations


     -----------------------------------------------
     Non-local corr. energy    =       0.42368958 Ry
     -----------------------------------------------


     Forces acting on atoms (cartesian axes, Ry/au):

     atom    1 type  1   force =     0.00000519    0.00000141    0.00000000
     atom    2 type  1   force =    -0.00000713    0.00000477    0.00000000
     atom    3 type  1   force =     0.00000713   -0.00000477    0.00000000
     atom    4 type  1   force =    -0.00000519   -0.00000141    0.00000000
     atom    5 type  2   force =    -0.00000443   -0.00000737    0.00000000
     atom    6 type  2   force =     0.00000443    0.00000737    0.00000000
     atom    7 type  2   force =    -0.00000276   -0.00000286    0.00001032
     atom    8 type  2   force =    -0.00000276   -0.00000286   -0.00001032
     atom    9 type  2   force =     0.00000276    0.00000286    0.00001032
     atom   10 type  2   force =     0.00000276    0.00000286   -0.00001032
     atom   11 type  2   force =     0.00000906   -0.00000038    0.00000212
     atom   12 type  2   force =     0.00000906   -0.00000038   -0.00000212
     atom   13 type  2   force =    -0.00000906    0.00000038    0.00000212
     atom   14 type  2   force =    -0.00000906    0.00000038   -0.00000212
     The non-local contrib.  to forces
     atom    1 type  1   force =     0.00042910    0.01555361    0.00000000
     atom    2 type  1   force =     0.01426665    0.02104300    0.00000000
     atom    3 type  1   force =    -0.01426665   -0.02104300    0.00000000
     atom    4 type  1   force =    -0.00042910   -0.01555361    0.00000000
     atom    5 type  2   force =    -0.17037592   -0.06801998    0.00000000
     atom    6 type  2   force =     0.17037592    0.06801998    0.00000000
     atom    7 type  2   force =     0.08495793   -0.06753090   -0.14682169
     atom    8 type  2   force =     0.08495793   -0.06753090    0.14682169
     atom    9 type  2   force =    -0.08495793    0.06753090   -0.14682169
     atom   10 type  2   force =    -0.08495793    0.06753090    0.14682169
     atom   11 type  2   force =    -0.09175847    0.06101715    0.14418035
     atom   12 type  2   force =    -0.09175847    0.06101715   -0.14418035
     atom   13 type  2   force =     0.09175847   -0.06101715    0.14418035
     atom   14 type  2   force =     0.09175847   -0.06101715   -0.14418035
     The ionic contribution  to forces
     atom    1 type  1   force =     1.19875720    4.86298999   -0.00000000
     atom    2 type  1   force =     3.51413108   -0.46666864    0.00000000
     atom    3 type  1   force =    -3.51413108    0.46666864    0.00000000
     atom    4 type  1   force =    -1.19875720   -4.86298999    0.00000000
     atom    5 type  2   force =     2.52933785    1.52922182   -0.00000000
     atom    6 type  2   force =    -2.52933785   -1.52922182   -0.00000000
     atom    7 type  2   force =    -0.98725377    1.71102242    2.12840900
     atom    8 type  2   force =    -0.98725377    1.71102242   -2.12840900
     atom    9 type  2   force =     0.98725377   -1.71102242    2.12840900
     atom   10 type  2   force =     0.98725377   -1.71102242   -2.12840900
     atom   11 type  2   force =     1.93481137   -0.87841903   -2.25571745
     atom   12 type  2   force =     1.93481137   -0.87841903    2.25571745
     atom   13 type  2   force =    -1.93481137    0.87841903   -2.25571745
     atom   14 type  2   force =    -1.93481137    0.87841903    2.25571745
     The local contribution  to forces
     atom    1 type  1   force =    -1.19916168   -4.87870939   -0.00000000
     atom    2 type  1   force =    -3.52855946    0.44610885   -0.00000000
     atom    3 type  1   force =     3.52855946   -0.44610885   -0.00000000
     atom    4 type  1   force =     1.19916168    4.87870939   -0.00000000
     atom    5 type  2   force =    -2.35896611   -1.46120896   -0.00000000
     atom    6 type  2   force =     2.35896611    1.46120896   -0.00000000
     atom    7 type  2   force =     0.90229283   -1.64349426   -1.98157682
     atom    8 type  2   force =     0.90229283   -1.64349426    1.98157682
     atom    9 type  2   force =    -0.90229283    1.64349426   -1.98157682
     atom   10 type  2   force =    -0.90229283    1.64349426    1.98157682
     atom   11 type  2   force =    -1.84304400    0.81740132    2.11153918
     atom   12 type  2   force =    -1.84304400    0.81740132   -2.11153918
     atom   13 type  2   force =     1.84304400   -0.81740132    2.11153918
     atom   14 type  2   force =     1.84304400   -0.81740132   -2.11153918
     The core correction contribution to forces
     atom    1 type  1   force =    -0.00002064    0.00016757    0.00000000
     atom    2 type  1   force =     0.00015346   -0.00047986    0.00000000
     atom    3 type  1   force =    -0.00015346    0.00047986    0.00000000
     atom    4 type  1   force =     0.00002064   -0.00016757    0.00000000
     atom    5 type  2   force =     0.00000000    0.00000000    0.00000000
     atom    6 type  2   force =     0.00000000    0.00000000    0.00000000
     atom    7 type  2   force =     0.00000000    0.00000000    0.00000000
     atom    8 type  2   force =     0.00000000    0.00000000    0.00000000
     atom    9 type  2   force =     0.00000000    0.00000000    0.00000000
     atom   10 type  2   force =     0.00000000    0.00000000    0.00000000
     atom   11 type  2   force =     0.00000000    0.00000000    0.00000000
     atom   12 type  2   force =     0.00000000    0.00000000    0.00000000
     atom   13 type  2   force =     0.00000000    0.00000000    0.00000000
     atom   14 type  2   force =     0.00000000    0.00000000    0.00000000
     The Hubbard contrib.    to forces
     atom    1 type  1   force =     0.00000000    0.00000000    0.00000000
     atom    2 type  1   force =     0.00000000    0.00000000    0.00000000
     atom    3 type  1   force =     0.00000000    0.00000000    0.00000000
     atom    4 type  1   force =     0.00000000    0.00000000    0.00000000
     atom    5 type  2   force =     0.00000000    0.00000000    0.00000000
     atom    6 type  2   force =     0.00000000    0.00000000    0.00000000
     atom    7 type  2   force =     0.00000000    0.00000000    0.00000000
     atom    8 type  2   force =     0.00000000    0.00000000    0.00000000
     atom    9 type  2   force =     0.00000000    0.00000000    0.00000000
     atom   10 type  2   force =     0.00000000    0.00000000    0.00000000
     atom   11 type  2   force =     0.00000000    0.00000000    0.00000000
     atom   12 type  2   force =     0.00000000    0.00000000    0.00000000
     atom   13 type  2   force =     0.00000000    0.00000000    0.00000000
     atom   14 type  2   force =     0.00000000    0.00000000    0.00000000
     The SCF correction term to forces
     atom    1 type  1   force =     0.00000122   -0.00000037   -0.00000000
     atom    2 type  1   force =     0.00000114    0.00000142   -0.00000000
     atom    3 type  1   force =    -0.00000114   -0.00000142   -0.00000000
     atom    4 type  1   force =    -0.00000122    0.00000037   -0.00000000
     atom    5 type  2   force =    -0.00000024   -0.00000025   -0.00000000
     atom    6 type  2   force =     0.00000024    0.00000025   -0.00000000
     atom    7 type  2   force =     0.00000026   -0.00000012   -0.00000017
     atom    8 type  2   force =     0.00000026   -0.00000012    0.00000017
     atom    9 type  2   force =    -0.00000026    0.00000012   -0.00000017
     atom   10 type  2   force =    -0.00000026    0.00000012    0.00000017
     atom   11 type  2   force =     0.00000015    0.00000018    0.00000004
     atom   12 type  2   force =     0.00000015    0.00000018   -0.00000004
     atom   13 type  2   force =    -0.00000015   -0.00000018    0.00000004
     atom   14 type  2   force =    -0.00000015   -0.00000018   -0.00000004

     Total force =     0.000034     Total SCF correction =     0.000003

     bfgs converged in  22 scf cycles and  21 bfgs steps
     (criteria: energy <  1.0E-04 Ry, force <  2.0E-05 Ry/Bohr)

     End of BFGS Geometry Optimization

     Final energy   =     -58.4339073528 Ry

     File ./trans-butane-vdw-df.bfgs deleted, as requested
Begin final coordinates

ATOMIC_POSITIONS (angstrom)
C             0.7094102742        1.8385006931        0.0000000000
C             0.7063721551        0.3031218182        0.0000000000
C            -0.7063721551       -0.3031218182        0.0000000000
C            -0.7094102742       -1.8385006931        0.0000000000
H             1.7332533895        2.2382732266        0.0000000000
H            -1.7332533895       -2.2382732266        0.0000000000
H             0.1949030214        2.2359588341        0.8877543966
H             0.1949030214        2.2359588341       -0.8877543966
H            -0.1949030214       -2.2359588341        0.8877543966
H            -0.1949030214       -2.2359588341       -0.8877543966
H             1.2576276478       -0.0655894580       -0.8819004438
H             1.2576276478       -0.0655894580        0.8819004438
H            -1.2576276478        0.0655894580       -0.8819004438
H            -1.2576276478        0.0655894580        0.8819004438
End final coordinates



     Writing output data file ./trans-butane-vdw-df.save/
 
     init_run     :     30.82s CPU     32.69s WALL (       1 calls)
     electrons    :   2851.58s CPU   3122.18s WALL (      23 calls)
     update_pot   :    292.15s CPU    318.96s WALL (      21 calls)
     forces       :    363.22s CPU    403.35s WALL (      23 calls)

     Called by init_run:
     wfcinit      :      0.96s CPU      1.00s WALL (       1 calls)
     wfcinit:atom :      0.01s CPU      0.01s WALL (       2 calls)
     wfcinit:wfcr :      0.93s CPU      0.96s WALL (       2 calls)
     potinit      :     35.02s CPU     37.58s WALL (       2 calls)
     hinit0       :      1.04s CPU      1.07s WALL (       1 calls)

     Called by electrons:
     c_bands      :    535.06s CPU    543.88s WALL (     143 calls)
     sum_band     :    353.11s CPU    407.37s WALL (     143 calls)
     v_of_rho     :   2024.07s CPU   2201.08s WALL (     149 calls)
     v_h          :     24.39s CPU     25.67s WALL (     149 calls)
     v_xc         :   2292.29s CPU   2495.84s WALL (     172 calls)
     newd         :    140.79s CPU    176.12s WALL (     149 calls)
     mix_rho      :     68.95s CPU     72.05s WALL (     143 calls)
     vdW_kernel   :      6.19s CPU      6.19s WALL (       1 calls)

     Called by c_bands:
     init_us_2    :      3.69s CPU      3.79s WALL (     620 calls)
     ccgdiagg     :    464.01s CPU    470.79s WALL (     286 calls)
     wfcrot       :     68.70s CPU     70.22s WALL (     208 calls)

     Called by sum_band:
     sum_band:wei :      0.00s CPU      0.01s WALL (     143 calls)
     sum_band:loo :     51.59s CPU     52.60s WALL (     143 calls)
     sum_band:buf :      0.54s CPU      0.55s WALL (     286 calls)
     sum_band:ini :      1.66s CPU      1.67s WALL (     286 calls)
     sum_band:cal :      1.40s CPU      1.41s WALL (     286 calls)
     sum_band:bec :      0.01s CPU      0.01s WALL (     286 calls)
     addusdens    :    235.33s CPU    283.82s WALL (     143 calls)
     addusd:skk   :      6.57s CPU     12.58s WALL (     286 calls)
     addusd:dgemm :     52.82s CPU     73.14s WALL (     572 calls)
     addusd:qvan2 :    166.86s CPU    167.20s WALL (     572 calls)

     Called by *cgdiagg:
     h_psi        :    387.52s CPU    395.23s WALL (   14239 calls)
     s_psi        :     76.98s CPU     77.29s WALL (   28270 calls)

     Called by h_psi:
     h_psi:calbec :     46.25s CPU     46.37s WALL (   14239 calls)
     vloc_psi     :    299.56s CPU    307.01s WALL (   14239 calls)
     add_vuspsi   :     39.95s CPU     40.12s WALL (   14239 calls)
     hs_1psi      :    363.54s CPU    369.88s WALL (   14031 calls)
     s_1psi       :     78.59s CPU     78.82s WALL (   14031 calls)

     General routines
     calbec       :     88.46s CPU     88.81s WALL (   28740 calls)
     fft          :   1706.41s CPU   1792.49s WALL (   15085 calls)
     ffts         :     12.21s CPU     12.78s WALL (     584 calls)
     fftw         :    291.14s CPU    299.33s WALL (   40032 calls)
     interpolate  :     43.47s CPU     45.49s WALL (     298 calls)
 
     Parallel routines
     fft_scatt_xy :    320.87s CPU    321.38s WALL (   55701 calls)
     fft_scatt_yz :    833.53s CPU    921.91s WALL (   55701 calls)
 
     PWSCF        :  59m52.79s CPU      1h 5m WALL

 
   This run was terminated on:  22:26:27  12Jul2020            

=------------------------------------------------------------------------------=
   JOB DONE.
=------------------------------------------------------------------------------=
